# vtk DataFile Version 3.0
Transient thermal analysis data for step 3 and time 0.08s
ASCII
DATASET UNSTRUCTURED_GRID
POINTS 34935 float
2750.0 1899.999999993878 0.0
2750.0 1949.999999994238 0.0
2707.007133928754 1939.538507784514 0.0
2692.171054162686 1904.786309970404 0.0
2720.627088666849 1976.803592591946 0.0
2699.80771683143 1865.319738197116 0.0
2654.765772854922 1934.587024220649 0.0
2750.0 1999.999999994599 0.0
2682.720556195154 1978.549424184897 0.0
2649.274647198324 1884.486279655865 0.0
2655.462111451932 1840.074836849806 0.0
2750.0 1849.999999993518 0.0
2705.836477485541 2024.587275469599 0.0
2608.299547626867 1862.651958477411 0.0
2705.807349779203 1820.523329966648 0.0
2613.177479191735 1815.974177979163 0.0
2663.859918695252 1794.232575391659 0.0
2568.70119785301 1791.538466171342 0.0
2615.098689537785 1769.375770303561 0.0
2642.402262543986 1976.637990147825 0.0
2608.053178525994 1910.925092086724 0.0
2750.0 2049.999999994958 0.0
2653.199883431934 2016.045638593263 0.0
2566.528498665421 1838.105829140437 0.0
2567.031975534004 1735.521238370751 0.0
2523.20894626562 1764.583756411213 0.0
2525.220410747291 1813.410611693054 0.0
2750.0 1799.999999993158 0.0
2607.238022582226 1955.945140436921 0.0
2706.698729810466 2074.999999995139 0.0
2656.522427737077 2068.466205839924 0.0
2566.293616618301 1886.006042170158 0.0
2706.989540184516 1774.175240928738 0.0
2663.980211852331 1747.839029618895 0.0
2619.571947837912 1723.082636236958 0.0
2610.091568493829 2000.229227882186 0.0
2514.882422062182 1713.675932647978 0.0
2479.87146598336 1786.488638478864 0.0
2565.195137640029 1933.358881978165 0.0
2750.0 2099.999999995319 0.0
2612.30745527394 2045.742278155287 0.0
2524.897925190292 1861.299130985466 0.0
2585.034933032282 1698.6331937256 0.0
2470.955494087209 1734.330626320379 0.0
2547.717211914639 1686.702523064086 0.0
2483.700312169864 1837.070919084736 0.0
2439.749443536994 1810.808297309593 0.0
2435.63683984105 1760.898195034708 0.0
2750.0 1749.999999992798 0.0
2566.702291178469 1979.000341907654 0.0
2705.889056430975 2126.532707201222 0.0
2654.802825115159 2117.254510189593 0.0
2611.39133213847 2093.99768188849 0.0
2524.337829331717 1909.085621813816 0.0
2706.992431872492 1724.15044592817 0.0
2664.223089594964 1699.196038961584 0.0
2622.195901394554 1675.759218647612 0.0
2566.860608682362 2024.54670867141 0.0
2471.499647341923 1687.115948826856 0.0
2511.605711794248 1664.173341695788 0.0
2587.088360043573 1659.877165445631 0.0
2400.20825108288 1788.43178736434 0.0
2523.286838694311 1955.878046297771 0.0
2750.0 2149.999999995679 0.0
2568.293907663989 2070.179914193648 0.0
2483.265595372673 1884.722822491205 0.0
2430.549874512478 1709.688052117829 0.0
2550.655197810764 1640.259404414264 0.0
2442.244675912774 1860.573087213098 0.0
2401.467374020025 1836.743240237307 0.0
2392.486509843381 1735.641768617244 0.0
2360.994414298119 1813.048451527131 0.0
2356.745519836629 1763.081197914273 0.0
2750.0 1699.999999992438 0.0
2523.441099024254 2002.152162150246 0.0
2705.640734820307 2176.547197459668 0.0
2653.402927936105 2168.231808014054 0.0
2610.991331116576 2143.285507827311 0.0
2568.599696229831 2118.839925972411 0.0
2482.808239872043 1932.434654755116 0.0
2706.761749603143 1673.692366074567 0.0
2664.808547739836 1651.015427994302 0.0
2628.438094278607 1635.939942149825 0.0
2524.576407726479 2049.348768486919 0.0
2431.095821938651 1662.748847152 0.0
2471.887308295604 1640.099568902259 0.0
2513.040932041796 1616.87330377901 0.0
2591.786689036263 1615.924329507008 0.0
2322.173322322542 1791.758403798394 0.0
2750.0 2199.999999996039 0.0
2554.356661370561 1593.450961386816 0.0
2314.714981028328 1752.012357990193 0.0
2288.594858468503 1779.562984795614 0.0
2750.0 2349.99999999712 0.0
2750.0 2399.999999997479 0.0
2703.307382441481 2376.58409124919 0.0
2750.0 2299.999999996759 0.0
2701.61974776575 2328.149939054433 0.0
2750.0 2249.999999996399 0.0
2705.346354233266 2276.445654209847 0.0
2702.792801645965 2227.999417069623 0.0
2482.44384571273 1980.257499690086 0.0
2524.581981850523 2096.816124449743 0.0
2441.862204507581 1908.028530646269 0.0
2389.892282649762 1685.558207459772 0.0
2400.871854327366 1883.938836111542 0.0
2360.479061491135 1859.719197218179 0.0
2346.518548925474 1711.549255368039 0.0
2320.421994439567 1835.997346296504 0.0
2513.233333463565 1569.529042233152 0.0
2280.760158796559 1814.557911381341 0.0
2271.132780951852 1750.67646053932 0.0
2707.553715979351 2422.816377423371 0.0
2249.517710266914 1788.129864550991 0.0
2750.0 2449.99999999784 0.0
2750.0 1649.999999992077 0.0
2482.042581005095 2028.179378400098 0.0
2653.020134493582 2217.530490338807 0.0
2610.488875559538 2192.498878673634 0.0
2567.467539110193 2169.125242288969 0.0
2524.89321162962 2145.388177559919 0.0
2441.395422676148 1955.760924044499 0.0
2705.89509236647 1619.013522243005 0.0
2666.892317040504 1613.353516829204 0.0
2635.655316098042 1592.955374868964 0.0
2482.238268132654 2074.218323056371 0.0
2431.554942437625 1616.13166114555 0.0
2391.047922465643 1638.461833094745 0.0
2472.324907239509 1592.942045981743 0.0
2596.082526905013 1569.804825291078 0.0
2554.554939625131 1545.502099249415 0.0
2302.875690647822 1716.937765228044 0.0
2654.481208713487 2357.893008556956 0.0
2663.43492568525 2399.999998084539 0.0
2652.95161095998 2313.919912453972 0.0
2653.707592059685 2264.749802759779 0.0
2226.369628208031 1760.416474252364 0.0
2697.88201296084 2473.995199665138 0.0
2441.013988908706 2003.448669333894 0.0
2482.032538347786 2123.165077697444 0.0
2400.453627346186 1930.668529403797 0.0
2350.683597705082 1660.422124515967 0.0
2359.986245559967 1906.281928506076 0.0
2319.836447036615 1882.372118642962 0.0
2280.140640458008 1858.784390167914 0.0
2472.440058194582 1546.099554904923 0.0
2513.382532348644 1521.84512603148 0.0
2309.663856285716 1680.60961460569 0.0
2232.480233869236 1831.420123734369 0.0
2270.175567098206 1702.850677442966 0.0
2668.950947379204 2438.974189722509 0.0
2231.104092708992 1725.163123057795 0.0
2199.069700037754 1792.332452999387 0.0
2750.0 2499.999999998199 0.0
2750.0 1599.999999991717 0.0
2440.699085372093 2051.167753648625 0.0
2610.262528743923 2241.454869086438 0.0
2567.265910647316 2217.560236640544 0.0
2523.95040002328 2195.087399710459 0.0
2480.882826712739 2172.634969970118 0.0
2400.011461166303 1977.786644731616 0.0
2680.475694498103 1570.48566347905 0.0
2638.154230041805 1545.990032808407 0.0
2440.68114531461 2099.709566247953 0.0
2431.844283582576 1569.461922222542 0.0
2391.461718400157 1592.43573502622 0.0
2351.306198452087 1614.952598529014 0.0
2596.302624529876 1521.714074929782 0.0
2554.65599539525 1497.347224919752 0.0
2611.829095992907 2386.013440704317 0.0
2609.131933489856 2338.810297953496 0.0
2618.899128165221 2436.764604629564 0.0
2609.542668348343 2290.950525363052 0.0
2192.369438004175 1747.413031971338 0.0
2704.560515791875 2526.744521741655 0.0
2651.148085840238 2468.552548291423 0.0
2185.89318714664 1827.310593765621 0.0
2750.0 2549.999999998559 0.0
2750.0 2599.99999999892 0.0
2700.291428587414 2577.947976212323 0.0
2750.0 2649.99999999928 0.0
2705.47754892778 2628.104088533565 0.0
2711.273696503457 2675.797056780801 0.0
2750.0 2699.99999999964 0.0
2721.200086280863 1572.899837139261 0.0
2399.987838316701 2025.678404473921 0.0
2439.945676129908 2148.106968514565 0.0
2359.103693349654 1952.345249286237 0.0
2311.281738112986 1637.18038456101 0.0
2319.172789808849 1928.64764037374 0.0
2279.499885233624 1904.936520263282 0.0
2240.06939655991 1881.282879373383 0.0
2431.945554388793 1522.912253466138 0.0
2472.575345330306 1498.60163395518 0.0
2513.279290459385 1473.561444364237 0.0
2271.784247752417 1659.70536453238 0.0
2232.595169700988 1682.149117934991 0.0
2193.716158989163 1704.468303357811 0.0
2154.817997796758 1771.081069031649 0.0
2650.04239160265 2514.507650221714 0.0
2154.707473605852 1812.875498728037 0.0
2200.820382721942 1858.044992309437 0.0
2675.309941518422 2658.220872569368 0.0
2713.753406917788 2713.753406917668 0.0
2750.0 2750.0 0.0
2750.0 1549.999999991357 0.0
2399.391216072724 2072.902130981973 0.0
2566.43662585064 2266.90195694991 0.0
2522.736766684894 2244.801040883808 0.0
2480.456145354925 2221.014730919396 0.0
2438.816691610667 2196.37806470368 0.0
2358.630240873726 1999.332588576718 0.0
2715.858801758072 1529.745891281199 0.0
2678.077066214076 1519.218298699047 0.0
2638.332673317202 1492.148513020447 0.0
2399.913353130983 2121.851711333627 0.0
2391.693886654084 1546.252532897238 0.0
2351.606965710874 1569.186847999375 0.0
2311.770518267939 1591.949399538438 0.0
2594.349916373586 1473.511113827783 0.0
2554.443352242139 1449.279400736901 0.0
2565.491750083296 2414.276091245149 0.0
2566.619531995114 2364.165430076651 0.0
2566.178712526484 2315.491921213485 0.0
2609.226311959394 2488.601650486745 0.0
2155.246448203744 1726.853958696235 0.0
2649.389412504549 2564.245280524946 0.0
2156.058458546468 1857.585047604665 0.0
2650.644384568207 2615.57430946651 0.0
2673.101281656752 2704.703972665287 0.0
2116.457035775112 1792.581436314575 0.0
2700.000000000053 2750.0 0.0
2115.948462332384 1836.362392652323 0.0
2358.12899794089 2045.278107925772 0.0
2398.59049621092 2170.010227279416 0.0
2318.486025525312 1974.941532534937 0.0
2273.003814561922 1615.944519580392 0.0
2278.769379751698 1951.099796911491 0.0
2240.148542434233 1927.517578830292 0.0
2202.985359186609 1903.695969609925 0.0
2391.876096799932 1499.981290564981 0.0
2431.728606285203 1476.101690784679 0.0
2472.676030305233 1451.089734179623 0.0
2513.654893480081 1425.20258078741 0.0
2232.192786201459 1638.924276325974 0.0
2194.050744082149 1660.040929032733 0.0
2564.89262227688 2463.726426402483 0.0
2154.68177368026 1682.507869438532 0.0
2116.889138455012 1748.853038726817 0.0
2607.051811315465 2538.654110573721 0.0
2177.217357272873 1883.205382439158 0.0
2633.837473098421 2664.065093982027 0.0
2671.607513571259 1484.652438765241 0.0
2594.060400057544 1425.344491559479 0.0
2078.425442775282 1813.942835346289 0.0
[...]
POINT_DATA 34935
SCALARS temperature float 1
LOOKUP_TABLE default
1.0832244585049297e-05
2.1881517400562606e-05
-5.1577612158539486e-06
-7.042226722643645e-07
-6.6674237777447335e-06
-4.203629711306376e-06
4.959857203592441e-07
1.9110532897553174e-05
2.5068694428628754e-06
5.675775269866703e-07
1.2660136199487463e-06
1.5375073416421737e-05
-3.7820197936781385e-06
-2.424556919021581e-07
-4.315187189213376e-06
-3.3284352739191277e-07
1.069786406510198e-06
8.401641509359256e-08
-2.8260118903389924e-07
-6.895280753071537e-07
-1.6248676543578695e-07
1.4675589877791862e-05
2.4261176067881936e-07
8.134086592043096e-08
6.831854963397897e-08
-2.378004549425821e-08
-2.179297024484191e-08
1.5965507276634415e-05
3.0800619562370293e-08
-3.759310188679669e-06
1.2195289739709336e-06
5.640903531211065e-08
-4.337549597852818e-06
1.1462754117524731e-06
-3.0866827866864026e-07
9.721519002257363e-08
-3.4270639761824026e-09
6.691832796849751e-09
1.8575472491703282e-08
1.5375880602947313e-05
-2.3053500657849578e-07
-1.9227588666765168e-08
1.2919476974815373e-07
4.436345264154759e-09
-4.0970316490575454e-08
5.4296376440160794e-09
-1.7680867660931911e-09
-1.6630601982018596e-09
1.5804867890680577e-05
-2.774274260179493e-08
-3.822275764644586e-06
1.091404698622106e-06
-3.310378028517998e-07
-1.0648671008620295e-08
-4.270101277149237e-06
1.1059528812204907e-06
-4.139244558361591e-07
1.5046664663476948e-08
-1.388816546931298e-09
8.78806507602867e-09
6.974898731532726e-08
4.789014132464945e-10
2.778753269683544e-09
1.526068791689382e-05
8.426425991990314e-08
4.277966096132395e-09
-3.450653835392454e-10
-1.136314039993353e-08
-1.328809539624152e-09
4.307618598016976e-10
2.8521163957591924e-10
-1.3067943554123784e-10
-1.1893880379929392e-10
1.589226369199555e-05
4.147617334709382e-09
-3.704339458182499e-06
1.0980071197179466e-06
-2.914218661794854e-07
8.330599032889889e-08
9.405273241259923e-10
-4.096006272881672e-06
1.3888361864986683e-06
-1.5748138490433115e-07
-1.4340549796653928e-08
5.35201434433999e-10
-1.652616363249425e-09
3.0221909249707693e-09
5.154370646399478e-08
3.981385383568479e-11
1.4560998804779216e-05
-2.1314831006625857e-08
2.4210071723017973e-11
-1.0789191592084218e-11
1.4233817943229089e-05
1.6073388314377208e-05
-4.261604527875668e-06
1.443024650116766e-05
-3.851188249008557e-06
1.4895431460512289e-05
-3.6984413957681974e-06
-3.905378883208745e-06
-1.5560634736591077e-09
-2.440528675096772e-08
-7.432911364046417e-10
-5.879270058858417e-11
2.9104947588983306e-10
-1.001471414296279e-10
-2.633852557418888e-11
3.1675846359627047e-11
8.420764468635327e-09
-9.897453021336874e-12
-2.533122081319573e-12
-4.529935546675919e-06
3.199551283350475e-12
1.4323647602060702e-05
1.4558731649754435e-05
1.1537227376595779e-09
1.1269501604130505e-06
-2.993926767746021e-07
7.843284472455692e-08
-2.1689947424307765e-08
1.9963630578998517e-10
-4.134287024084747e-06
2.408610498216443e-07
-3.0519200418551696e-07
5.692677682037794e-09
3.762104687070992e-10
-1.356698436249069e-10
-1.389719023524421e-09
1.1461508024661224e-07
-3.5675854310223985e-08
1.0519121496573902e-12
1.158464052499088e-06
1.0631749326273428e-06
1.1020060819192e-06
1.0843679827939505e-06
-6.725179349155857e-14
-3.668454654443475e-06
1.9353706162844394e-10
6.419934111174607e-09
6.521365396118022e-11
3.343763603412516e-11
-4.917803904613367e-11
2.0775755001341888e-11
-6.696384496568447e-12
-2.4180213835924887e-09
7.786499207524688e-09
-1.8252869066274315e-13
2.108545808843584e-12
2.9090797868962076e-14
1.4301167674163733e-06
4.974216230658599e-13
-8.517283312856392e-13
1.3526947361687129e-05
1.9082422395236092e-05
-9.512870718665057e-10
-2.8911515354689326e-07
7.814112148245467e-08
-2.06952060402503e-08
5.755889206804732e-09
-9.464277514957112e-11
2.0878773994649413e-06
-4.998546081632464e-07
-1.7442141492184117e-09
5.260372300250395e-10
-1.1463519781267438e-10
3.363123424029568e-11
1.2244817308864348e-07
-1.9304436666323602e-08
-2.808811990268658e-07
-2.9947179595593896e-07
-3.0302638688037216e-07
-2.9591667545943694e-07
7.334611408194196e-14
-3.430373787671986e-06
3.2328338342479826e-07
-1.9103802533559959e-13
1.4131048945110342e-05
1.425354018496334e-05
-3.58793267585891e-06
1.6047900968477115e-05
-4.3608619631776374e-06
-3.561176273304884e-06
1.9858164570051754e-05
-6.2925120222940645e-06
8.613541982186535e-11
-1.6702055052757217e-09
1.1738049801312574e-11
-1.0554555365440072e-11
4.2075269673593995e-12
-3.5058236252415462e-12
1.5145271592412242e-12
5.702472140269444e-10
-1.5479421482394724e-09
4.155304433737281e-09
1.42519146695633e-12
-2.3815509120048977e-13
-6.998849750059775e-14
1.282640663218902e-13
1.1904364524702398e-06
1.432038507712473e-13
-6.57768606870988e-13
1.6726262277339564e-06
-1.3105711964605622e-05
2.9592794672003214e-05
2.364431300755696e-05
3.879826159234026e-10
7.876262988363293e-08
-2.1528121727600506e-08
5.769291300850114e-09
-1.5286737433378584e-09
1.0408190075734367e-11
-5.23840988099156e-06
1.25010351670334e-06
-2.8996295667731805e-07
4.717481151249913e-10
-1.5675057570726983e-10
3.669064777257399e-11
-9.349644666816574e-12
3.349424836561201e-08
-1.6250339960644714e-08
8.977885338333454e-08
7.458250603648967e-08
7.978059640552168e-08
-1.4803201936355827e-07
-2.0314160337282437e-14
1.0128416421163153e-06
7.707748699500263e-14
9.115663556656356e-07
-2.605411416140998e-06
-4.016897578508222e-14
1.7891009884397095e-05
-3.324335618559799e-14
-6.644324632871203e-11
4.172229593702086e-10
-5.6845321808769396e-12
2.8846624175003877e-12
7.465767054301113e-13
3.1357996321657125e-13
-2.902188472623116e-13
-1.231171623825641e-10
3.470245054236303e-10
-1.250817537946242e-09
5.8129562786581775e-09
-5.664341604665501e-13
1.1708557418103685e-13
6.259315749676972e-08
1.7645682906136718e-15
-1.3706257889462394e-14
-3.3147899508145853e-07
1.7960259560968016e-13
7.47678616417124e-07
4.86023956932405e-07
1.0156720070636745e-07
1.113716213321765e-14
1.6594844413467603e-05
-1.2263157349321077e-10
-2.1588180109028753e-08
5.852653454430488e-09
-1.5669714293732647e-09
4.117412200119783e-10
6.340167215091877e-12
-4.1067275462183445e-06
-1.1097334663215631e-07
-1.2107345177577455e-10
3.913557641395481e-11
-1.0544587078150449e-11
2.645019423800458e-12
-2.62549564600694e-08
-2.0499727555672467e-08
-2.2961212562229098e-08
-2.0457684757475024e-08
6.593590425237988e-08
4.293511314023565e-15
-1.800528065773778e-07
-2.023525457279043e-15
-4.470805632116641e-14
-6.583423449049738e-07
-4.843102402950251e-06
1.4790770418747204e-05
7.748529857300524e-15
1.2799051723619803e-06
4.7792783818873885e-15
2.793050041151655e-11
-1.0872251868547626e-10
5.3337162149098e-13
-7.677045366860973e-13
-3.4678720479269217e-13
5.07308594954958e-14
1.803403177180597e-14
2.8365846441896874e-11
-9.648132105082929e-11
4.070278335422575e-10
-1.754498410218584e-09
6.4135360420403716e-09
1.5750734972854626e-13
-5.28891427525373e-14
-1.6740016780136907e-08
7.193079099368761e-15
7.098305999991472e-16
6.670054109195689e-08
1.7220639769697767e-06
-5.600600632015614e-07
8.233448062345198e-08
-2.8115084720878786e-15
-2.3671699937434252e-15
-1.880014846316182e-08
1.576938569428815e-05
3.3424482249040464e-11
5.635186383091069e-09
-1.5337640798125361e-09
4.1976416630061764e-10
-1.10872214938349e-10
-4.7330809557393854e-12
2.960124955779755e-11
-8.59288770263408e-12
2.7132432271258373e-12
-7.712666359777776e-13
3.812945224646358e-09
6.06632855223855e-09
5.8967482407804655e-09
-2.4978109046119735e-08
-1.808649477267266e-15
1.4559121324033642e-08
-1.301765573447582e-15
6.056574211241689e-15
6.6305713930706795e-15
1.0612599578822678e-06
1.75574905095179e-05
-5.090052728857387e-06
-1.0895994060787199e-15
-4.59438422164695e-06
-3.1377309916780327e-16
1.1583172684048806e-14
5.503341520197624e-08
7.918807105594824e-16
3.6353755799497963e-16
-8.764573152601101e-12
2.855650008739787e-11
4.685253594251997e-13
1.3891271660762828e-06
2.508181690293461e-13
2.0642844991355514e-14
-1.624915644887971e-14
-8.348701535846309e-12
3.124129194292283e-11
-1.237483640696698e-10
4.618587727082596e-10
-1.4208911624087676e-09
3.949359127772328e-09
-9.794607170690924e-15
1.3151549125467514e-08
-2.9818798212463106e-15
2.5841872779493665e-16
5.634503937166454e-08
-5.7000962236324e-08
5.594436961834372e-16
-1.2469755236028981e-08
-1.641182497545548e-16
-2.0244958197369428e-16
1.7102026345959817e-05
-8.396137830846581e-12
-1.5299560451307008e-09
3.986407921226634e-10
-1.0820888185899114e-10
3.1223268352011016e-11
1.943371772816219e-12
1.2166391253329941e-06
-7.905160079876353e-12
1.9203673859883633e-12
-7.50369844136724e-13
2.1640874626018982e-13
-9.327410617541634e-14
-4.087148686858112e-09
-6.369900746804798e-10
-1.7808898288242094e-09
-3.652774394703891e-08
6.997572917434081e-16
-4.830698869663608e-07
4.531025339114458e-16
-1.2466870327455336e-15
1.7736593358690007e-15
-4.4585058664216145e-06
1.7061194619703025e-05
8.272306115149357e-17
-4.733274466599681e-06
-6.558481587412158e-17
-3.945240066387844e-15
-1.2496218613611428e-15
-5.51280802776662e-07
4.7269370345590015e-08
-3.279653328497493e-17
5.4527154336503375e-17
2.630719802426994e-17
2.4079314841221113e-12
-8.276129283655886e-12
-3.228326404766962e-13
-9.359662282607046e-15
-1.0200998480617492e-11
2.8905588534482477e-12
3.295530279906097e-11
-1.0257935756330504e-10
3.087116455460477e-10
-9.505846825209642e-10
3.924609612919193e-09
2.5556590540352213e-14
-8.058298354154605e-11
6.521368180331913e-16
-1.5075822924469606e-16
1.141525555996528e-07
1.7128933606141912e-06
-8.541906626047129e-17
-8.926549698008602e-08
-1.8879533883857173e-08
4.138283807828071e-17
1.7562526662842786e-15
-1.1606908590478812e-17
-1.4134510656102406e-17
1.6058285371686915e-05
2.0738063594124073e-12
4.750304670883679e-10
-1.0823317323149991e-10
2.0230865407245304e-11
-7.51628250768769e-12
-6.070366233849949e-13
-4.163709434066368e-06
3.779099734449346e-14
2.233955809335488e-12
-1.0434791828372445e-13
1.2284505021688914e-13
-4.3970440504778844e-14
-1.0530442845637263e-12
8.820224240454144e-09
-5.766187105072715e-10
3.8759840370984584e-10
6.100925942726339e-08
-2.0625207908268655e-16
2.1547199984712073e-07
2.3317483551692597e-16
-1.1679374047342537e-16
-3.6846393212951454e-16
-1.1690222284312002e-15
-4.286906165162785e-06
1.55819078660756e-05
1.6919121211261047e-17
1.2413120778278493e-06
3.807469174552881e-17
-5.2403177862746915e-15
-1.789916557207261e-16
-3.652147635332157e-07
9.531512227915017e-08
-3.489568055383157e-18
-2.8008262232952064e-18
3.76080654769267e-18
2.06316990706081e-18
-5.98229667704195e-13
2.5541494520355e-12
1.3925352440955057e-13
-7.636607435144908e-12
2.4948137053864572e-12
2.218906422067974e-11
-7.641346164558148e-11
2.929817848721885e-10
-1.3653319616081987e-09
6.123846818954125e-09
5.9138852932719036e-15
-4.1927896886965836e-08
1.1695051163001348e-17
5.5658156308571e-17
-5.043052441233561e-07
7.644775174225545e-18
-2.5417525170539705e-08
-6.666630793050399e-18
6.465355615004106e-16
-3.2332366574641573e-16
3.0007096633872877e-18
-8.486375755929349e-19
-9.829320565815195e-19
2.7045981028415534e-19
1.6161477547622262e-05
-5.409292822428731e-13
-2.0404800232902035e-10
6.824481523459558e-11
1.3466809620520692e-12
-2.4974709847127802e-12
1.8481276622859711e-13
-4.61252332782205e-06
-2.338117233327725e-14
-1.0484808677222124e-12
-4.169200969880143e-14
2.8254876591361256e-13
-9.879657755537125e-15
-5.780861763597197e-13
-1.4327356472556679e-09
-4.9679992278241646e-09
4.1244557006027285e-10
1.0847908245613564e-07
1.6459935404073593e-17
2.405891025843233e-06
-2.025725244241144e-16
1.6388102238385127e-17
2.3798011871822134e-18
2.6887751896889355e-15
2.0270015160804114e-05
-1.2819894773798698e-17
-1.1694733447403423e-17
-3.181838099871757e-17
1.226826169128927e-06
-3.237779905433059e-07
8.396918305621832e-08
3.953695634212191e-18
-6.210073835465382e-19
-1.744586944425305e-19
2.175873181915049e-19
1.73654916870445e-19
-6.782762540834825e-20
-9.807512717947907e-20
1.299559508088907e-13
2.0032766133045785e-12
-4.7691950680274226e-14
-5.576768863622888e-12
2.067578680443787e-12
2.2677329942736502e-11
-9.999901595217321e-11
4.452329885273771e-10
-1.7458853858378069e-09
6.46064407363985e-09
-1.5791917792214249e-15
7.774042848898825e-08
4.7720966349160735e-17
-9.44667421126453e-18
2.2712102883188618e-07
-6.1451640730263474e-06
1.3240200511904648e-18
-2.1751459511678854e-08
5.859096655875782e-19
-9.929528547166217e-17
-5.122916675366791e-17
-5.08459314305717e-19
3.610292072402803e-20
1.6503916360812603e-05
3.7808437993048753e-13
-1.343436468844748e-11
-1.0694635574215488e-10
2.6300127815617763e-11
-1.1453454257673811e-11
-3.429228644052893e-14
-5.124320050851806e-06
1.0233401942646826e-14
-3.8683862745851044e-13
-6.632915084942063e-14
1.7951619888972407e-14
1.114575177965858e-13
-3.377100706680596e-13
-6.249042860673816e-10
5.524017903026209e-09
-1.8813834647976915e-08
-4.6980636387304817e-07
-6.843404467857342e-18
-4.3717751578687015e-06
-1.3414026747125915e-15
-1.774070742513093e-17
2.1297707361095593e-17
3.407218044972349e-17
2.0022792359207336e-05
3.665281567476071e-18
-4.90296740386249e-18
1.3531853752654918e-16
6.486542992536718e-17
1.1742124732747052e-06
-3.1074478626609443e-07
8.11802185883283e-08
-4.622924688182949e-20
7.05942036304987e-19
-4.228178819826339e-19
-3.6185543578927184e-20
4.815019557776484e-20
2.4452157079151745e-19
1.2424762563823678e-20
-6.997871559788448e-20
1.836128954950173e-20
-1.1181169623650449e-20
-5.262645531164194e-14
-1.5033277437189292e-12
1.4592477522259515e-14
-7.962986337285645e-12
3.7291622500292934e-13
3.168798853543662e-11
-1.2530383301253644e-10
4.6256590321592335e-10
-1.6516194330293772e-09
5.577846353427902e-09
-5.3020934797100434e-15
-4.064124143475591e-08
-1.7451193172144663e-17
1.883072432842452e-18
1.6228066574475903e-06
-7.893798540390003e-19
1.1905925625281813e-15
-2.2886886963334523e-08
9.59378222622419e-20
4.419374722435591e-17
-1.6035201266854323e-16
-6.344143469395874e-18
2.8934719234072637e-11
-7.62602727840765e-22
-2.528192137070635e-20
1.6095797078728773e-05
-3.8015466321683194e-13
5.368726482085775e-10
5.0247669391243395e-11
-2.116601899551118e-14
-4.951319610192495e-06
-6.254071353658014e-15
3.0554463242411028e-12
-1.6380899425791537e-14
1.386554811900969e-14
3.379814919779127e-14
2.4775526979222035e-12
7.560435149142337e-14
-1.275452031586711e-09
-5.937126791517281e-09
8.120969237965175e-08
9.88656081873074e-07
3.2922004205340927e-18
-4.295232479452725e-06
1.5812915048103362e-15
4.359365959188394e-17
-2.054185558169354e-16
-3.9660180581653985e-18
1.4941011427140917e-05
-1.0353768404925036e-18
6.925938919135475e-18
-8.224378717026415e-18
1.167812660389185e-06
-3.1936637578938464e-07
8.748218477671446e-08
-5.7697585065921086e-18
2.861651998914667e-18
-1.2893424679677163e-18
4.10111921219565e-21
2.455293888394808e-21
-4.1301740661040604e-20
2.5201456998429497e-19
-1.2100991157949335e-21
-3.768712570095219e-20
-1.3142804368514842e-10
2.893796044849105e-21
4.880597673334115e-10
2.3617904373151247e-20
-3.307210970476351e-21
2.268947277271e-13
-1.4519528153400523e-11
1.1742037863751896e-14
-1.0288888220754544e-11
2.549311177973608e-12
-6.790043956372974e-13
3.913611512101714e-11
-1.415554801379086e-10
-1.3498782915152397e-09
6.520472425971429e-09
1.1403860640733573e-15
6.591166243768475e-16
-4.692348351670986e-07
4.027874835912914e-18
-7.96689665541387e-19
-8.895482538325585e-20
2.3806965846936703e-19
-3.0336152236602646e-16
-2.346016213844482e-08
1.2071358806186348e-19
6.6835694320725e-17
-1.6118516184428873e-17
4.436585556325e-18
-1.3429260327036196e-10
-1.2918662470452942e-19
2.761185585077941e-19
2.1028151783098334e-15
-8.308102160326612e-21
2.4780721511432866e-20
1.6015523507468764e-05
-7.548003448255114e-13
-1.2396961428619561e-09
6.825303753239188e-10
3.4195244830158744e-11
-3.784836821181475e-14
-4.959448047690858e-06
5.678030384136508e-16
2.0749896864513698e-14
-4.782136983988605e-14
2.0768194816666524e-13
9.392756626590497e-09
-4.0627716689389614e-08
8.146077464022212e-08
1.544508210369509e-06
-1.1364838892848122e-18
1.6398735161393426e-05
-4.303352440499017e-06
-2.479672269750619e-15
8.147622707548176e-16
2.609683675657115e-16
-6.614926940074716e-17
3.9788685153357485e-17
2.849691572540653e-19
1.188743139692303e-06
-3.364608384498046e-07
8.75257531281465e-08
-1.3869026403874488e-17
4.945333149073967e-18
-1.3605043144550928e-19
-1.6000333550253941e-22
-2.6285295911817655e-21
1.2446136568458938e-20
-4.6543121786703306e-20
-2.226916240845518e-19
-2.420094215319667e-22
-2.146370415340275e-22
8.305594728089122e-11
-5.4939319703710246e-11
3.201080051559053e-15
2.0667978173682887e-21
8.837910725294776e-22
1.4974120719606872e-21
1.6742117449020238e-20
-3.108548908288266e-21
-1.3191527042884177e-13
1.9417665698532002e-11
-2.0146156842126468e-14
-9.231142262695966e-12
2.7470414497937012e-12
-7.047012518103665e-13
2.527891740160259e-11
-1.8386503430946402e-09
6.532210377126367e-09
-8.552062936966729e-16
5.028987672808402e-17
3.240226922290202e-07
-6.483817741409911e-19
5.954198899649354e-20
2.9126587966428594e-19
4.348173764515411e-17
-2.35857838982721e-08
-1.778448853052282e-17
4.969907104209526e-18
-1.5606956324863363e-18
2.6937282965029358e-11
7.511721363031748e-10
4.796508981758651e-19
7.883283597612066e-24
-1.5746920887443888e-18
1.7545841107503228e-14
-3.261609607135103e-15
-3.7491593119099666e-20
-2.2726030021684506e-16
-1.2088321809358177e-10
-1.5590762617976507e-21
1.6424601249141102e-05
1.8023448963778708e-12
-1.596776525577613e-09
-1.4169407927400173e-10
1.6220307035031467e-13
-4.638210223990198e-06
1.22199960741292e-14
-9.188954955658607e-12
-5.3893393592326295e-14
1.7175744825738857e-13
-5.387897184159479e-09
8.210681316641685e-08
-4.7398063566103895e-07
-3.936625216857828e-06
2.709141867413251e-19
1.432936780018395e-05
-2.7118501336903105e-16
-2.314707702987047e-15
3.0608435769699143e-16
-4.190421787477111e-20
5.880873888866757e-17
2.6876923388465105e-19
1.2408190821756825e-06
-3.368040207930791e-07
8.778479221285407e-08
-1.3197461660581386e-17
-5.201558533391961e-18
2.6341297009440185e-18
-6.722208999088589e-23
9.753246934706477e-22
-3.893364866795807e-21
1.3046638077919034e-20
1.2431551927779174e-22
-1.1537193879884084e-09
-2.340863471778146e-22
2.1747181730532155e-11
-1.3538636764807625e-16
-6.443299769649866e-22
1.8794767148102597e-22
-1.409390928538836e-20
1.0306757743641364e-21
-4.5180792419650414e-20
-1.4673966461030166e-21
1.0309840024380315e-20
-6.163417151970439e-13
1.5476773272803836e-11
-2.865344110292664e-14
-5.19413104192897e-12
1.8118187595386624e-12
-6.115870040578152e-13
-1.4106458137552486e-09
6.014087999999674e-09
2.1589974150329711e-16
-5.881127725629576e-17
1.5185686592667598e-06
4.3687987481968685e-20
-4.247795605495111e-20
-8.359421342555401e-20
1.2419480397683442e-17
4.38134171802715e-18
-2.3554218189355744e-08
1.997775746011424e-18
-1.025014910775874e-18
4.0592335171911207e-19
5.884717620153283e-10
-1.235141450887828e-10
-1.112245244914383e-18
-5.505214419304873e-19
2.2276227150871356e-19
4.6935482693119964e-18
1.424248711812968e-14
-5.272236508250264e-15
1.8263033784321463e-15
-2.627327109625805e-22
1.0839790072498093e-15
-7.948613990990033e-18
3.746846428403241e-11
7.29514714787753e-24
-2.039640381342017e-21
-1.8312739895669247e-22
5.842496721949827e-22
1.6927742553974268e-05
-5.1093407669683295e-14
7.875352675176036e-09
1.6151986246241995e-10
-1.4777100723084727e-13
-4.7946278832312445e-06
-2.2359304240039555e-14
1.811631263271845e-11
-4.459722314743773e-14
1.5847275220883674e-13
1.0127201987990602e-10
-2.547775469509885e-08
-3.719022883420621e-08
1.0310988943630449e-06
-4.233515747715372e-06
1.4256710611720905e-05
-4.443802823033826e-20
1.533826496349516e-14
1.0567652982720742e-20
-1.640118784165924e-16
-1.1634661260482814e-19
1.2428206284318513e-06
-3.20877679574147e-07
8.581068035920618e-08
6.83755069645717e-17
-1.2597591402960572e-17
2.7706486582094015e-23
-2.8305308670354645e-22
9.25697854483577e-22
-3.0689519516484904e-21
-4.9056704579497925e-24
-5.065600940825013e-10
1.424620447896637e-22
-8.258607778008214e-12