# vtk DataFile Version 3.0
Transient thermal analysis data for step 40 and time 4.100000000000001s
ASCII
DATASET UNSTRUCTURED_GRID
POINTS 130 float
-15.5 5.000000000022031 0.0
-15.5 4.25 0.0
-15.00000000000472 4.732142857147577 0.0
-16.3791468753088 4.286607773149345 0.0
-14.5 4.25 0.0
-15.00000000000095 5.246428571429516 0.0
-16.80115647064665 5.674299777557909 0.0
-14.5 4.999999999977969 0.0
-15.5 5.75 0.0
-15.92936599282193 3.335322013160364 0.0
-14.94680358137007 3.585284948850315 0.0
-17.89631103296686 3.282899583812677 0.0
-13.81907127269629 4.497154450275694 0.0
-14.5 5.75 0.0
-14.09311703508025 3.527709763540016 0.0
-16.06736833999613 6.727392744789179 0.0
-20.0 5.000000000004944 0.0
-13.759855517048 5.476341660404811 0.0
-15.10312891159305 6.529544727479665 0.0
-14.73401790683522 2.568731456379495 0.0
-17.3162476321589 7.734460384841064 0.0
-15.98546612039634 2.093149571173478 0.0
-20.0 1.231725832440134e-11 0.0
-13.03127143194078 3.787482560410491 0.0
-13.05778306883334 4.862825375030274 0.0
-14.04977385512179 6.594664867845144 0.0
-15.18345364212026 7.662292419993408 0.0
-20.0 10.0 0.0
-16.824431242672 0.8434809145952711 0.0
-13.51199707390608 2.438087857773852 0.0
-12.77480768641024 5.996040246623247 0.0
-14.5574075368252 0.9197367730691907 0.0
-14.99999999999384 10.0 0.0
-15.85750097392058 -2.251889072126779 0.0
-11.9706545602879 2.685683991049428 0.0
-11.90390943607138 4.557107957437132 0.0
-13.00090537915322 7.809531947369704 0.0
-12.76902584332495 1.152445999972511 0.0
-20.0 -4.99999999999384 0.0
-10.81070175663487 6.356998786395072 0.0
-12.74104194152045 -0.9278358601126886 0.0
-9.99999999998768 10.0 0.0
-15.83254836894153 -6.123743631963166 0.0
-11.06402810408511 0.6465572380827758 0.0
-9.924442834626438 3.454556439994156 0.0
-13.28297505349201 -3.528169235010358 0.0
-20.0 -10.0 0.0
-7.299857017971677 6.016865895909906 0.0
-9.97399280594173 -2.316007077936933 0.0
-14.99999999999419 -10.0 0.0
-12.00979117713576 -6.021370532912223 0.0
-8.381780950035859 0.4553339077656684 0.0
-7.215902913028858 2.934745389810856 0.0
-4.999999999981526 10.0 0.0
-4.216366508413011 3.336161323633077 0.0
-5.264318844713041 0.4678735407954617 0.0
-7.886505272913704 -5.910250998138538 0.0
-6.455615522878494 -2.389369977077688 0.0
-2.564591463982334 6.710819715437943 0.0
-10.00000000000989 -10.0 0.0
2.463451664880267e-11 10.0 0.0
-0.1863282356969391 3.863652609229666 0.0
-1.495340989670034 0.6992824860438656 0.0
-3.003350589634204 -2.601208468058818 0.0
-5.000000000025935 -10.0 0.0
-4.489173559800408 -5.281765933980301 0.0
1.288024037646553 7.065168533032103 0.0
5.000000000025935 10.0 0.0
2.893045116890798 0.9454794074765919 0.0
3.807723101266409 4.991912763360966 0.0
0.7744370765062377 -2.682372206564944 0.0
-1.090091697249488 -6.420898717569305 0.0
-2.463451664880267e-11 -10.0 0.0
7.861795061808399 5.943521333009451 0.0
6.374525310904023 2.293369558819901 0.0
4.633922649860967 -2.778469125330478 0.0
2.961442126242081 -6.2216387836756 0.0
10.00000000000989 10.0 0.0
5.826012115755018 -0.2366945055692662 0.0
11.95950492269056 6.130727978545726 0.0
14.99999999999419 10.0 0.0
4.999999999981526 -10.0 0.0
9.89203476592368 2.550792894305181 0.0
8.307102242921612 -0.1174116195281182 0.0
7.270598293281037 -3.394383710182805 0.0
6.669103580694209 -5.845992595385458 0.0
15.9499422838352 6.12285738805903 0.0
20.0 10.0 0.0
12.99079294389936 3.026883127141263 0.0
20.0 4.99999999999384 0.0
9.265634655627272 -7.3803539243679 0.0
11.15401746272003 0.09057269926579517 0.0
9.750995805269907 -2.034140430813285 0.0
8.909803221368042 -5.422131076522694 0.0
15.9271594047738 2.472585499582738 0.0
9.99999999998768 -10.0 0.0
9.63954532278106 -3.889099558875316 0.0
13.48882738748503 0.5370877676716188 0.0
20.0 -1.231725832440134e-11 0.0
11.96932159597097 -8.218605379134441 0.0
10.69450865840199 -5.24851036007533 0.0
11.47852929290522 -2.179890907862025 0.0
10.91228201306101 -3.534143357259545 0.0
12.56347758400038 -1.067224610802264 0.0
15.18052355444757 0.145850256425994 0.0
14.99999999999384 -10.0 0.0
11.44618964514373 -6.699368806918613 0.0
14.1206203845613 -1.367562882150957 0.0
16.34798828137458 -1.511178331630958 0.0
13.98033791223186 -7.642591269556137 0.0
12.8014833157184 -6.899374371015396 0.0
12.5 -5.75 0.0
12.78985405871983 -2.489958710252763 0.0
12.11801759293692 -3.550713323673715 0.0
11.85048094718075 -4.624999999988985 0.0
17.3227728274993 -3.753242386187601 0.0
20.0 -10.0 0.0
15.88797580775108 -5.806989442995248 0.0
13.83552053214604 -2.955730108920255 0.0
15.27229646301784 -2.587750001879577 0.0
20.0 -5.000000000004944 0.0
13.5 -5.75 0.0
12.5 -4.999999999977969 0.0
12.9397981082843 -3.491456620641669 0.0
12.5 -4.25 0.0
14.89612574569177 -4.070087927278675 0.0
13.5 -5.000000000022031 0.0
12.99999999999764 -5.267857142855569 0.0
13.5 -4.25 0.0
12.99999999999953 -4.753571428571114 0.0
CELLS 234 936
3 0 1 2
3 1 0 3
3 1 4 2
3 0 2 5
3 3 0 6
3 4 7 2
3 8 0 5
3 9 1 3
3 4 1 10
3 2 7 5
3 0 8 6
3 11 3 6
3 7 4 12
3 13 8 5
3 10 1 9
3 9 3 11
3 4 10 14
3 7 13 5
3 8 15 6
3 16 11 6
3 4 14 12
3 7 12 17
3 8 13 18
3 10 9 19
3 8 18 15
3 20 16 6
3 9 11 21
3 14 10 19
3 13 7 17
3 15 20 6
3 16 22 11
3 12 14 23
3 17 12 24
3 18 13 25
3 19 9 21
3 18 26 15
3 27 16 20
3 11 28 21
3 14 19 29
3 13 17 25
3 26 20 15
3 22 28 11
3 14 29 23
3 12 23 24
3 30 17 24
3 26 18 25
3 31 19 21
3 32 27 20
3 28 31 21
3 29 19 31
3 17 30 25
3 32 20 26
3 22 33 28
3 23 29 34
3 23 35 24
3 35 30 24
3 36 26 25
3 28 33 31
3 29 31 37
3 30 36 25
3 36 32 26
3 22 38 33
3 34 29 37
3 35 23 34
3 35 39 30
3 31 33 40
3 31 40 37
3 39 36 30
3 41 32 36
3 33 38 42
3 43 34 37
3 44 35 34
3 44 39 35
3 40 33 45
3 40 43 37
3 39 41 36
3 38 46 42
3 33 42 45
3 43 44 34
3 47 39 44
3 48 40 45
3 48 43 40
3 47 41 39
3 46 49 42
3 42 50 45
3 43 51 44
3 47 44 52
3 44 51 52
3 50 48 45
3 48 51 43
3 53 41 47
3 49 50 42
3 54 47 52
3 51 55 52
3 50 56 48
3 48 57 51
3 53 47 58
3 49 59 50
3 47 54 58
3 55 54 52
3 51 57 55
3 59 56 50
3 48 56 57
3 60 53 58
3 54 61 58
3 62 54 55
3 55 57 63
3 59 64 56
3 57 56 65
3 60 58 66
3 62 61 54
3 58 61 66
3 62 55 63
3 57 65 63
3 56 64 65
3 67 60 66
3 68 61 62
3 61 69 66
3 70 62 63
3 65 71 63
3 65 64 71
3 69 67 66
3 68 69 61
3 68 62 70
3 71 70 63
3 64 72 71
3 73 67 69
3 74 69 68
3 75 68 70
3 76 70 71
3 77 67 73
3 72 76 71
3 74 73 69
3 74 68 78
3 68 75 78
3 76 75 70
3 77 73 79
3 80 77 79
3 72 81 76
3 82 73 74
3 83 74 78
3 75 84 78
3 76 85 75
3 79 73 82
3 80 79 86
3 87 80 86
3 76 81 85
3 82 74 83
3 84 83 78
3 75 85 84
3 79 82 88
3 86 79 88
3 89 87 86
3 85 81 90
3 82 83 91
3 83 84 92
3 84 85 93
3 82 91 88
3 94 86 88
3 94 89 86
3 81 95 90
3 85 90 93
3 91 83 92
3 84 96 92
3 96 84 93
3 91 97 88
3 97 94 88
3 98 89 94
3 90 95 99
3 90 100 93
3 101 91 92
3 96 102 92
3 100 96 93
3 97 91 103
3 94 97 104
3 98 94 104
3 95 105 99
3 90 99 106
3 100 90 106
3 91 101 103
3 102 101 92
3 100 102 96
3 97 103 107
3 97 107 104
3 108 98 104
3 99 105 109
3 99 110 106
3 111 100 106
3 101 112 103
3 113 101 102
3 114 102 100
3 103 112 107
3 107 108 104
3 98 108 115
3 99 109 110
3 105 116 117
3 105 117 109
3 110 111 106
3 111 114 100
3 113 112 101
3 114 113 102
3 112 118 107
3 108 107 119
3 120 98 115
3 115 108 119
3 109 121 110
3 116 120 117
3 117 121 109
3 121 111 110
3 111 122 114
3 113 123 112
3 124 113 114
3 112 123 118
3 107 118 119
3 120 115 117
3 125 115 119
3 126 121 117
3 111 121 127
3 122 111 127
3 122 124 114
3 124 123 113
3 123 128 118
3 118 125 119
3 115 125 117
3 121 126 127
3 125 126 117
3 122 127 129
3 124 122 129
3 124 128 123
3 118 128 125
3 127 126 129
3 128 126 125
3 128 124 129
3 126 128 129
CELL_TYPES 234
5
5
5
5
5
5
5
5
5
5
5
5
5
5
5
5
5
5
5
5
5
5
5
5
5
5
5
5
5
5
5
5
5
5
5
5
5
5
5
5
5
5
5
5
5
5
5
5
5
5
5
5
5
5
5
5
5
5
5
5
5
5
5
5
5
5
5
5
5
5
5
5
5
5
5
5
5
5
5
5
5
5
5
5
5
5
5
5
5
5
5
5
5
5
5
5
5
5
5
5
5
5
5
5
5
5
5
5
5
5
5
5
5
5
5
5
5
5
5
5
5
5
5
5
5
5
5
5
5
5
5
5
5
5
5
5
5
5
5
5
5
5
5
5
5
5
5
5
5
5
5
5
5
5
5
5
5
5
5
5
5
5
5
5
5
5
5
5
5
5
5
5
5
5
5
5
5
5
5
5
5
5
5
5
5
5
5
5
5
5
5
5
5
5
5
5
5
5
5
5
5
5
5
5
5
5
5
5
5
5
5
5
5
5
5
5
5
5
5
5
5
5
5
5
5
5
5
5
5
5
5
5
5
5
POINT_DATA 130
SCALARS temperature float 1
LOOKUP_TABLE default
1.9271748132520221
1.926522629773933
1.9273916081554785
0.0021833324135939656
1.927235801890046
1.9274009512741865
-0.0011192957694992065
1.9273480051221996
1.9265508837197403
0.001158493564776202
5.034495062021502e-05
-0.006704412389856833
0.0001464177217550701
1.9271859103670574
0.00013344902646031577
0.004920589855286294
0.016023170820822913
-0.0008138434574470773
-0.0009749664593021195
-0.0007820197535797497
-0.014723977245998061
0.0016448376594031466
0.011008548153551448
8.510166512653283e-05
-0.00026777768804692864
0.0021729549978333307
-0.0014192294863903585
0.023071979517380766
-0.001399813043573768
-9.392634340680207e-05
0.001825146272911558
0.0011365353455764608
0.01862329584719861
-0.003492527648151299
-9.897264009412736e-05
-0.00022117454520056325
-0.0075226437018592
-0.00014025985448464214
0.009123826733308289
-0.0009038696490814173
-8.010695227723033e-05
0.01029861706565219
-0.006017406420519734
-0.00020319145713688125
0.0008325578388330714
0.0025058867218652413
0.01324122123746835
-0.0033314958472246896
0.0007832706500197524
0.009889218356540868
-0.0030014751114684204
-0.0003637423959563664
0.0004429796023733032
0.009473641558772908
0.0011052181663329123
-0.00027743312742495166
-0.0029412409288059388
0.0005655404449936449
-0.0032420109995178986
0.009433241281396783
0.013200155525407176
0.001196526280186105
-0.0005326296632314464
0.0005193886694009058
0.0074520336862825
-0.0007991335288776915
-0.0040067636153712305
0.0077925739520986375
-0.00034134090623013356
-0.000585682298627206
0.0010336638540852196
-0.003008672433988224
0.010908635452383774
-0.0030989449587685894
0.0007125729393348055
0.0006219240539255069
-0.0033243661844662847
0.009586571631252419
-0.00013225307592830722
-0.002840111435741121
0.009847017814261654
0.008360890096919909
0.0008840346765813265
-0.0001822161120210064
-0.00011241390729681194
-0.0005356075382694311
-0.00588309542930029
0.013214852082393163
0.0023009079264550486
0.009854868382215252
-0.006061265687727147
-0.0006953470636017701
0.00024496675587260246
0.0013535142525797218
-0.0036054214364864274
0.02145488082592398
-0.0003931001131373139
0.0005140964198610754
0.008750395524940351
-0.008489897433161054
0.0006438624217711686
0.0001464369888906518
-0.00011570670958419835
-6.404510493768312e-05
-0.001700153465939952
0.013678293580489559
0.0034443104044696135
0.00044513901270836176
-0.0014505118594596062
-0.00047475551493152726
0.0012077768101944521
1.9257828120265665
-1.9789471401390104e-05
-6.093411700573815e-05
9.88870507947531e-05
-0.004861269778139409
0.012033551546340103
-0.009135328999102684
-0.0008165185164272908
0.0009649141719654857
0.014491086216909406
1.9299601721196704
1.927629140827342
0.0004276324518398619
1.9272543148314163
0.0031800503937441937
1.9292521741648967
1.9265137494669142
1.9262802001195851
1.9271572668776948
