# vtk DataFile Version 3.0
Transient thermal analysis data for step 0 and time 0.1s
ASCII
DATASET UNSTRUCTURED_GRID
POINTS 130 float
-15.5 5.000000000022031 0.0
-15.5 4.25 0.0
-15.00000000000472 4.732142857147577 0.0
-16.3791468753088 4.286607773149345 0.0
-14.5 4.25 0.0
-15.00000000000095 5.246428571429516 0.0
-16.80115647064665 5.674299777557909 0.0
-14.5 4.999999999977969 0.0
-15.5 5.75 0.0
-15.92936599282193 3.335322013160364 0.0
-14.94680358137007 3.585284948850315 0.0
-17.89631103296686 3.282899583812677 0.0
-13.81907127269629 4.497154450275694 0.0
-14.5 5.75 0.0
-14.09311703508025 3.527709763540016 0.0
-16.06736833999613 6.727392744789179 0.0
-20.0 5.000000000004944 0.0
-13.759855517048 5.476341660404811 0.0
-15.10312891159305 6.529544727479665 0.0
-14.73401790683522 2.568731456379495 0.0
-17.3162476321589 7.734460384841064 0.0
-15.98546612039634 2.093149571173478 0.0
-20.0 1.231725832440134e-11 0.0
-13.03127143194078 3.787482560410491 0.0
-13.05778306883334 4.862825375030274 0.0
-14.04977385512179 6.594664867845144 0.0
-15.18345364212026 7.662292419993408 0.0
-20.0 10.0 0.0
-16.824431242672 0.8434809145952711 0.0
-13.51199707390608 2.438087857773852 0.0
-12.77480768641024 5.996040246623247 0.0
-14.5574075368252 0.9197367730691907 0.0
-14.99999999999384 10.0 0.0
-15.85750097392058 -2.251889072126779 0.0
-11.9706545602879 2.685683991049428 0.0
-11.90390943607138 4.557107957437132 0.0
-13.00090537915322 7.809531947369704 0.0
-12.76902584332495 1.152445999972511 0.0
-20.0 -4.99999999999384 0.0
-10.81070175663487 6.356998786395072 0.0
-12.74104194152045 -0.9278358601126886 0.0
-9.99999999998768 10.0 0.0
-15.83254836894153 -6.123743631963166 0.0
-11.06402810408511 0.6465572380827758 0.0
-9.924442834626438 3.454556439994156 0.0
-13.28297505349201 -3.528169235010358 0.0
-20.0 -10.0 0.0
-7.299857017971677 6.016865895909906 0.0
-9.97399280594173 -2.316007077936933 0.0
-14.99999999999419 -10.0 0.0
-12.00979117713576 -6.021370532912223 0.0
-8.381780950035859 0.4553339077656684 0.0
-7.215902913028858 2.934745389810856 0.0
-4.999999999981526 10.0 0.0
-4.216366508413011 3.336161323633077 0.0
-5.264318844713041 0.4678735407954617 0.0
-7.886505272913704 -5.910250998138538 0.0
-6.455615522878494 -2.389369977077688 0.0
-2.564591463982334 6.710819715437943 0.0
-10.00000000000989 -10.0 0.0
2.463451664880267e-11 10.0 0.0
-0.1863282356969391 3.863652609229666 0.0
-1.495340989670034 0.6992824860438656 0.0
-3.003350589634204 -2.601208468058818 0.0
-5.000000000025935 -10.0 0.0
-4.489173559800408 -5.281765933980301 0.0
1.288024037646553 7.065168533032103 0.0
5.000000000025935 10.0 0.0
2.893045116890798 0.9454794074765919 0.0
3.807723101266409 4.991912763360966 0.0
0.7744370765062377 -2.682372206564944 0.0
-1.090091697249488 -6.420898717569305 0.0
-2.463451664880267e-11 -10.0 0.0
7.861795061808399 5.943521333009451 0.0
6.374525310904023 2.293369558819901 0.0
4.633922649860967 -2.778469125330478 0.0
2.961442126242081 -6.2216387836756 0.0
10.00000000000989 10.0 0.0
5.826012115755018 -0.2366945055692662 0.0
11.95950492269056 6.130727978545726 0.0
14.99999999999419 10.0 0.0
4.999999999981526 -10.0 0.0
9.89203476592368 2.550792894305181 0.0
8.307102242921612 -0.1174116195281182 0.0
7.270598293281037 -3.394383710182805 0.0
6.669103580694209 -5.845992595385458 0.0
15.9499422838352 6.12285738805903 0.0
20.0 10.0 0.0
12.99079294389936 3.026883127141263 0.0
20.0 4.99999999999384 0.0
9.265634655627272 -7.3803539243679 0.0
11.15401746272003 0.09057269926579517 0.0
9.750995805269907 -2.034140430813285 0.0
8.909803221368042 -5.422131076522694 0.0
15.9271594047738 2.472585499582738 0.0
9.99999999998768 -10.0 0.0
9.63954532278106 -3.889099558875316 0.0
13.48882738748503 0.5370877676716188 0.0
20.0 -1.231725832440134e-11 0.0
11.96932159597097 -8.218605379134441 0.0
10.69450865840199 -5.24851036007533 0.0
11.47852929290522 -2.179890907862025 0.0
10.91228201306101 -3.534143357259545 0.0
12.56347758400038 -1.067224610802264 0.0
15.18052355444757 0.145850256425994 0.0
14.99999999999384 -10.0 0.0
11.44618964514373 -6.699368806918613 0.0
14.1206203845613 -1.367562882150957 0.0
16.34798828137458 -1.511178331630958 0.0
13.98033791223186 -7.642591269556137 0.0
12.8014833157184 -6.899374371015396 0.0
12.5 -5.75 0.0
12.78985405871983 -2.489958710252763 0.0
12.11801759293692 -3.550713323673715 0.0
11.85048094718075 -4.624999999988985 0.0
17.3227728274993 -3.753242386187601 0.0
20.0 -10.0 0.0
15.88797580775108 -5.806989442995248 0.0
13.83552053214604 -2.955730108920255 0.0
15.27229646301784 -2.587750001879577 0.0
20.0 -5.000000000004944 0.0
13.5 -5.75 0.0
12.5 -4.999999999977969 0.0
12.9397981082843 -3.491456620641669 0.0
12.5 -4.25 0.0
14.89612574569177 -4.070087927278675 0.0
13.5 -5.000000000022031 0.0
12.99999999999764 -5.267857142855569 0.0
13.5 -4.25 0.0
12.99999999999953 -4.753571428571114 0.0
CELLS 234 936
3 0 1 2
3 1 0 3
3 1 4 2
3 0 2 5
3 3 0 6
3 4 7 2
3 8 0 5
3 9 1 3
3 4 1 10
3 2 7 5
3 0 8 6
3 11 3 6
3 7 4 12
3 13 8 5
3 10 1 9
3 9 3 11
3 4 10 14
3 7 13 5
3 8 15 6
3 16 11 6
3 4 14 12
3 7 12 17
3 8 13 18
3 10 9 19
3 8 18 15
3 20 16 6
3 9 11 21
3 14 10 19
3 13 7 17
3 15 20 6
3 16 22 11
3 12 14 23
3 17 12 24
3 18 13 25
3 19 9 21
3 18 26 15
3 27 16 20
3 11 28 21
3 14 19 29
3 13 17 25
3 26 20 15
3 22 28 11
3 14 29 23
3 12 23 24
3 30 17 24
3 26 18 25
3 31 19 21
3 32 27 20
3 28 31 21
3 29 19 31
3 17 30 25
3 32 20 26
3 22 33 28
3 23 29 34
3 23 35 24
3 35 30 24
3 36 26 25
3 28 33 31
3 29 31 37
3 30 36 25
3 36 32 26
3 22 38 33
3 34 29 37
3 35 23 34
3 35 39 30
3 31 33 40
3 31 40 37
3 39 36 30
3 41 32 36
3 33 38 42
3 43 34 37
3 44 35 34
3 44 39 35
3 40 33 45
3 40 43 37
3 39 41 36
3 38 46 42
3 33 42 45
3 43 44 34
3 47 39 44
3 48 40 45
3 48 43 40
3 47 41 39
3 46 49 42
3 42 50 45
3 43 51 44
3 47 44 52
3 44 51 52
3 50 48 45
3 48 51 43
3 53 41 47
3 49 50 42
3 54 47 52
3 51 55 52
3 50 56 48
3 48 57 51
3 53 47 58
3 49 59 50
3 47 54 58
3 55 54 52
3 51 57 55
3 59 56 50
3 48 56 57
3 60 53 58
3 54 61 58
3 62 54 55
3 55 57 63
3 59 64 56
3 57 56 65
3 60 58 66
3 62 61 54
3 58 61 66
3 62 55 63
3 57 65 63
3 56 64 65
3 67 60 66
3 68 61 62
3 61 69 66
3 70 62 63
3 65 71 63
3 65 64 71
3 69 67 66
3 68 69 61
3 68 62 70
3 71 70 63
3 64 72 71
3 73 67 69
3 74 69 68
3 75 68 70
3 76 70 71
3 77 67 73
3 72 76 71
3 74 73 69
3 74 68 78
3 68 75 78
3 76 75 70
3 77 73 79
3 80 77 79
3 72 81 76
3 82 73 74
3 83 74 78
3 75 84 78
3 76 85 75
3 79 73 82
3 80 79 86
3 87 80 86
3 76 81 85
3 82 74 83
3 84 83 78
3 75 85 84
3 79 82 88
3 86 79 88
3 89 87 86
3 85 81 90
3 82 83 91
3 83 84 92
3 84 85 93
3 82 91 88
3 94 86 88
3 94 89 86
3 81 95 90
3 85 90 93
3 91 83 92
3 84 96 92
3 96 84 93
3 91 97 88
3 97 94 88
3 98 89 94
3 90 95 99
3 90 100 93
3 101 91 92
3 96 102 92
3 100 96 93
3 97 91 103
3 94 97 104
3 98 94 104
3 95 105 99
3 90 99 106
3 100 90 106
3 91 101 103
3 102 101 92
3 100 102 96
3 97 103 107
3 97 107 104
3 108 98 104
3 99 105 109
3 99 110 106
3 111 100 106
3 101 112 103
3 113 101 102
3 114 102 100
3 103 112 107
3 107 108 104
3 98 108 115
3 99 109 110
3 105 116 117
3 105 117 109
3 110 111 106
3 111 114 100
3 113 112 101
3 114 113 102
3 112 118 107
3 108 107 119
3 120 98 115
3 115 108 119
3 109 121 110
3 116 120 117
3 117 121 109
3 121 111 110
3 111 122 114
3 113 123 112
3 124 113 114
3 112 123 118
3 107 118 119
3 120 115 117
3 125 115 119
3 126 121 117
3 111 121 127
3 122 111 127
3 122 124 114
3 124 123 113
3 123 128 118
3 118 125 119
3 115 125 117
3 121 126 127
3 125 126 117
3 122 127 129
3 124 122 129
3 124 128 123
3 118 128 125
3 127 126 129
3 128 126 125
3 128 124 129
3 126 128 129
CELL_TYPES 234
5
5
5
5
5
5
5
5
5
5
5
5
5
5
5
5
5
5
5
5
5
5
5
5
5
5
5
5
5
5
5
5
5
5
5
5
5
5
5
5
5
5
5
5
5
5
5
5
5
5
5
5
5
5
5
5
5
5
5
5
5
5
5
5
5
5
5
5
5
5
5
5
5
5
5
5
5
5
5
5
5
5
5
5
5
5
5
5
5
5
5
5
5
5
5
5
5
5
5
5
5
5
5
5
5
5
5
5
5
5
5
5
5
5
5
5
5
5
5
5
5
5
5
5
5
5
5
5
5
5
5
5
5
5
5
5
5
5
5
5
5
5
5
5
5
5
5
5
5
5
5
5
5
5
5
5
5
5
5
5
5
5
5
5
5
5
5
5
5
5
5
5
5
5
5
5
5
5
5
5
5
5
5
5
5
5
5
5
5
5
5
5
5
5
5
5
5
5
5
5
5
5
5
5
5
5
5
5
5
5
5
5
5
5
5
5
5
5
5
5
5
5
5
5
5
5
5
5
5
5
5
5
5
5
POINT_DATA 130
SCALARS temperature float 1
LOOKUP_TABLE default
0.04700449181979701
0.046989186972673916
0.04700899199815625
5.2984902613395606e-05
0.04700686269848765
0.04700936817795221
-2.7384777833707645e-05
0.04700905483694077
0.04698956507296595
2.8269860033097737e-05
3.7303407169508143e-07
-0.0001637720223398784
2.9640605393657304e-06
0.047005426844167884
3.142504696589468e-06
0.00012019086659840793
0.00039156629155278515
-2.039510917100964e-05
-2.446809616115548e-05
-1.8984105754749575e-05
-0.0003599708258911673
4.016764216267147e-05
0.0002688676584215531
2.149508430893289e-06
-6.38369683626472e-06
5.3022287107303564e-05
-3.462454466111306e-05
0.0005642642749621062
-3.4184697717626035e-05
-2.3059948080539118e-06
4.463925146568086e-05
2.77468936933883e-05
0.0004552007949908009
-8.528823201967877e-05
-2.4196583732893596e-06
-5.432344855545207e-06
-0.0001838228127409568
-3.42141693651905e-06
0.00022278996283926663
-2.206538565076567e-05
-1.955592094008347e-06
0.00025152577678137626
-0.00014696739102503366
-4.962027508131789e-06
2.0333964158873047e-05
6.119863658216214e-05
0.00032345429287449076
-8.13596120182559e-05
1.912386541315613e-05
0.00024149900422080944
-7.329119296203634e-05
-8.881861848844734e-06
1.0817178515867073e-05
0.00023134077018649457
2.6992418120150443e-05
-6.774532076280983e-06
-7.18125824534311e-05
1.3807594133559383e-05
-7.91817683786171e-05
0.0002303362322645577
0.00032243288064426486
2.9221190171010307e-05
-1.3007242828024465e-05
1.2681458556991401e-05
0.00018193312834006599
-1.9506625801353394e-05
-9.785464114507703e-05
0.0001902605680188801
-8.336378894825933e-06
-1.4295728777199867e-05
2.5242244954216758e-05
-7.346496250542034e-05
0.00026639552059763157
-7.566661595338764e-05
1.739813028032866e-05
1.5185229263817879e-05
-8.118341819731422e-05
0.00023408371826274025
-3.2285665008667874e-06
-6.934966059889838e-05
0.0002404677014348381
0.00020415874194266008
2.1584304182256103e-05
-4.447897186052562e-06
-2.746333039274436e-06
-1.3060947027733925e-05
-0.0001436913909055037
0.0003228152451078753
5.6191602229205846e-05
0.00024065337767812924
-0.00014811334864543098
-1.6977489050959536e-05
5.975111249986866e-06
3.3067413253211396e-05
-8.803500294841932e-05
0.0005244822262367642
-9.62242660618101e-06
1.2552897510531197e-05
0.00021366347295806952
-0.00020747565163279673
1.575592836622916e-05
3.5646790035416345e-06
-2.7100336543335626e-06
-1.576804449826812e-06
-4.1513140404011904e-05
0.0003342166767731491
8.407220503001384e-05
1.0860203139510455e-05
-3.541650573079884e-05
-1.164094960567468e-05
2.9221588544026177e-05
0.04697065978678323
-3.7625574697014726e-07
-1.6199170892974153e-06
1.699549467514184e-06
-0.00011872214017434593
0.000293944737366271
-0.000223195215103561
-1.9996365948526344e-05
2.3601507079360516e-05
0.00035403170561889614
0.047072554926204005
0.04701614189243601
9.696866905648534e-06
0.04700730150504413
7.752600364376373e-05
0.04705511077282306
0.04698786764190472
0.04698295683359856
0.04700329993972283
